16
Energy = -491.9592790164
  C    -3.1142415466    -2.4414340038     0.1660277830   
  C    -4.3012466930    -3.3059822267     0.3536462115   
  N    -4.0032880165    -4.6848925879     0.4661993446   
  C    -2.7664909063    -5.3165329604     0.4157038249   
  N    -1.7182907934    -4.4052399838     0.2257023598   
  C    -1.8846360138    -3.0458261941     0.1059697774   
  H    -0.9611990872    -2.4785024025    -0.0436525893   
  H    -0.7910280402    -4.8239037601     0.1727332685   
  H    -4.8061339390    -5.3025058499     0.5999782544   
  O    -2.5910734211    -6.5189335849     0.5203250452   
  O    -5.4617772126    -2.9203731836     0.4142433918   
  C    -3.3553148518    -0.9986676399     0.0529104728   
  C    -2.4395911473    -0.0122340062    -0.0266743389   
  H    -4.4227303702    -0.7462614320     0.0448720911   
  H    -1.3577773725    -0.1955853083    -0.0065950855   
  H    -2.7520999050     1.0333383547    -0.1132230972   
